Date_file to box block, parametrs: n_types 1 h2 1000 rho 0.3 T 2000

4000 atoms
2 atom types

0 42.307733 xlo xhi
0 42.307733 ylo yhi
0 42.307733 zlo zhi

Masses

1 1.008000
2 0.005000

Atoms

   1    1 1.000000    0 0.000000 4.0876 2.0139 23.4629
   2    1 1.000000    0 0.000000 5.3141 2.6869 23.5457
   3    2 0.000000    1 1.860000 4.7009 2.3504 23.5043
   4    2 0.000000   -1 1.860000 4.7009 2.3504 23.5043
   5    1 1.000000    0 0.000000 18.3191 39.5957 20.7994
   6    1 1.000000    0 0.000000 19.2878 40.3189 21.5083
   7    2 0.000000    1 1.860000 18.8034 39.9573 21.1539
   8    2 0.000000   -1 1.860000 18.8034 39.9573 21.1539
   9    1 1.000000    0 0.000000 8.9918 37.2171 34.8428
  10    1 1.000000    0 0.000000 9.8116 37.9966 35.6701
  11    2 0.000000    1 1.860000 9.4017 37.6069 35.2564
  12    2 0.000000   -1 1.860000 9.4017 37.6069 35.2564
  13    1 1.000000    0 0.000000 27.5625 2.1030 13.9730
  14    1 1.000000    0 0.000000 28.8478 2.5979 14.2322
  15    2 0.000000    1 1.860000 28.2052 2.3504 14.1026
  16    2 0.000000   -1 1.860000 28.2052 2.3504 14.1026
  17    1 1.000000    0 0.000000 39.3383 25.7373 23.1977
  18    1 1.000000    0 0.000000 40.5763 25.9722 23.8109
  19    2 0.000000    1 1.860000 39.9573 25.8547 23.5043
  20    2 0.000000   -1 1.860000 39.9573 25.8547 23.5043
  21    1 1.000000    0 0.000000 34.9074 2.0387 15.9315
  22    1 1.000000    0 0.000000 35.6055 2.6622 16.9745
  23    2 0.000000    1 1.860000 35.2564 2.3504 16.4530
  24    2 0.000000   -1 1.860000 35.2564 2.3504 16.4530
  25    1 1.000000    0 0.000000 9.3386 11.6419 36.9178
  26    1 1.000000    0 0.000000 9.4648 11.8624 38.2960
  27    2 0.000000    1 1.860000 9.4017 11.7521 37.6069
  28    2 0.000000   -1 1.860000 9.4017 11.7521 37.6069
  29    1 1.000000    0 0.000000 22.8105 37.5759 2.2572
  30    1 1.000000    0 0.000000 24.1981 37.6378 2.4437
  31    2 0.000000    1 1.860000 23.5043 37.6069 2.3504
  32    2 0.000000   -1 1.860000 23.5043 37.6069 2.3504
  33    1 1.000000    0 0.000000 13.6417 4.2216 20.9328
  34    1 1.000000    0 0.000000 14.5635 5.1801 21.3749
  35    2 0.000000    1 1.860000 14.1026 4.7009 21.1539
  36    2 0.000000   -1 1.860000 14.1026 4.7009 21.1539
  37    1 1.000000    0 0.000000 20.7698 11.6837 39.3752
  38    1 1.000000    0 0.000000 21.5379 11.8206 40.5394
  39    2 0.000000    1 1.860000 21.1539 11.7521 39.9573
  40    2 0.000000   -1 1.860000 21.1539 11.7521 39.9573
  41    1 1.000000    0 0.000000 13.7966 39.5088 20.7110
  42    1 1.000000    0 0.000000 14.4086 40.4058 21.5968
  43    2 0.000000    1 1.860000 14.1026 39.9573 21.1539
  44    2 0.000000   -1 1.860000 14.1026 39.9573 21.1539
  45    1 1.000000    0 0.000000 30.4274 27.5894 34.9475
  46    1 1.000000    0 0.000000 30.6838 28.8209 35.5654
  47    2 0.000000    1 1.860000 30.5556 28.2052 35.2564
  48    2 0.000000   -1 1.860000 30.5556 28.2052 35.2564
  49    1 1.000000    0 0.000000 13.6594 30.2051 6.6368
  50    1 1.000000    0 0.000000 14.5458 30.9060 7.4657
  51    2 0.000000    1 1.860000 14.1026 30.5556 7.0513
  52    2 0.000000   -1 1.860000 14.1026 30.5556 7.0513
  53    1 1.000000    0 0.000000 20.6351 2.2978 23.0362
  54    1 1.000000    0 0.000000 21.6726 2.4031 23.9724
  55    2 0.000000    1 1.860000 21.1539 2.3504 23.5043
  56    2 0.000000   -1 1.860000 21.1539 2.3504 23.5043
  57    1 1.000000    0 0.000000 21.0147 4.4198 20.5272
  58    1 1.000000    0 0.000000 21.2930 4.9819 21.7805
  59    2 0.000000    1 1.860000 21.1539 4.7009 21.1539
  60    2 0.000000   -1 1.860000 21.1539 4.7009 21.1539
  61    1 1.000000    0 0.000000 25.7869 6.5952 32.3784
  62    1 1.000000    0 0.000000 25.9226 7.5073 33.4337
  63    2 0.000000    1 1.860000 25.8547 7.0513 32.9060
  64    2 0.000000   -1 1.860000 25.8547 7.0513 32.9060
  65    1 1.000000    0 0.000000 6.7694 34.9573 8.8342
  66    1 1.000000    0 0.000000 7.3331 35.5556 9.9692
  67    2 0.000000    1 1.860000 7.0513 35.2564 9.4017
  68    2 0.000000   -1 1.860000 7.0513 35.2564 9.4017
  69    1 1.000000    0 0.000000 9.2629 11.3040 22.9838
  70    1 1.000000    0 0.000000 9.5406 12.2003 24.0248
  71    2 0.000000    1 1.860000 9.4017 11.7521 23.5043
  72    2 0.000000   -1 1.860000 9.4017 11.7521 23.5043
  73    1 1.000000    0 0.000000 27.7491 25.6710 15.9537
  74    1 1.000000    0 0.000000 28.6612 26.0384 16.9523
  75    2 0.000000    1 1.860000 28.2052 25.8547 16.4530
  76    2 0.000000   -1 1.860000 28.2052 25.8547 16.4530
  77    1 1.000000    0 0.000000 18.4545 35.1156 22.9132
  78    1 1.000000    0 0.000000 19.1524 35.3973 24.0954
  79    2 0.000000    1 1.860000 18.8034 35.2564 23.5043
  80    2 0.000000   -1 1.860000 18.8034 35.2564 23.5043
  81    1 1.000000    0 0.000000 34.9918 1.7020 30.5347
  82    1 1.000000    0 0.000000 35.5211 2.9989 30.5765
  83    2 0.000000    1 1.860000 35.2564 2.3504 30.5556
  84    2 0.000000   -1 1.860000 35.2564 2.3504 30.5556
  85    1 1.000000    0 0.000000 21.0509 32.3289 1.9665
  86    1 1.000000    0 0.000000 21.2568 33.4831 2.7343
  87    2 0.000000    1 1.860000 21.1539 32.9060 2.3504
  88    2 0.000000   -1 1.860000 21.1539 32.9060 2.3504
  89    1 1.000000    0 0.000000 6.8544 27.5744 37.3736
  90    1 1.000000    0 0.000000 7.2482 28.8359 37.8402
  91    2 0.000000    1 1.860000 7.0513 28.2052 37.6069
  92    2 0.000000   -1 1.860000 7.0513 28.2052 37.6069
  93    1 1.000000    0 0.000000 34.8815 28.0110 25.2955
  94    1 1.000000    0 0.000000 35.6314 28.3993 26.4139
  95    2 0.000000    1 1.860000 35.2564 28.2052 25.8547
  96    2 0.000000   -1 1.860000 35.2564 28.2052 25.8547
  97    1 1.000000    0 0.000000 13.6520 27.8879 30.1227
  98    1 1.000000    0 0.000000 14.5531 28.5224 30.9885
  99    2 0.000000    1 1.860000 14.1026 28.2052 30.5556
 100    2 0.000000   -1 1.860000 14.1026 28.2052 30.5556
 101    1 1.000000    0 0.000000 27.7712 16.0482 18.4309
 102    1 1.000000    0 0.000000 28.6392 16.8578 19.1760
 103    2 0.000000    1 1.860000 28.2052 16.4530 18.8034
 104    2 0.000000   -1 1.860000 28.2052 16.4530 18.8034
 105    1 1.000000    0 0.000000 11.2564 11.6276 1.8711
 106    1 1.000000    0 0.000000 12.2479 11.8767 2.8298
 107    2 0.000000    1 1.860000 11.7521 11.7521 2.3504
 108    2 0.000000   -1 1.860000 11.7521 11.7521 2.3504
 109    1 1.000000    0 0.000000 13.5990 16.1452 27.8275
 110    1 1.000000    0 0.000000 14.6061 16.7608 28.5828
 111    2 0.000000    1 1.860000 14.1026 16.4530 28.2052
 112    2 0.000000   -1 1.860000 14.1026 16.4530 28.2052
 113    1 1.000000    0 0.000000 30.1060 18.4123 13.7340
 114    1 1.000000    0 0.000000 31.0052 19.1946 14.4712
 115    2 0.000000    1 1.860000 30.5556 18.8034 14.1026
 116    2 0.000000   -1 1.860000 30.5556 18.8034 14.1026
 117    1 1.000000    0 0.000000 11.7065 18.6856 25.1655
 118    1 1.000000    0 0.000000 11.7978 18.9213 26.5439
 119    2 0.000000    1 1.860000 11.7521 18.8034 25.8547
 120    2 0.000000   -1 1.860000 11.7521 18.8034 25.8547
 121    1 1.000000    0 0.000000 35.2270 2.2112 4.0148
 122    1 1.000000    0 0.000000 35.2859 2.4897 5.3870
 123    2 0.000000    1 1.860000 35.2564 2.3504 4.7009
 124    2 0.000000   -1 1.860000 35.2564 2.3504 4.7009
 125    1 1.000000    0 0.000000 37.5057 32.3371 39.5609
 126    1 1.000000    0 0.000000 37.7080 33.4749 40.3537
 127    2 0.000000    1 1.860000 37.6069 32.9060 39.9573
 128    2 0.000000   -1 1.860000 37.6069 32.9060 39.9573
 129    1 1.000000    0 0.000000 20.7474 34.8174 39.5926
 130    1 1.000000    0 0.000000 21.5604 35.6954 40.3220
 131    2 0.000000    1 1.860000 21.1539 35.2564 39.9573
 132    2 0.000000   -1 1.860000 21.1539 35.2564 39.9573
 133    1 1.000000    0 0.000000 20.7675 39.4872 20.8064
 134    1 1.000000    0 0.000000 21.5402 40.4274 21.5013
 135    2 0.000000    1 1.860000 21.1539 39.9573 21.1539
 136    2 0.000000   -1 1.860000 21.1539 39.9573 21.1539
 137    1 1.000000    0 0.000000 35.1205 11.4004 32.3155
 138    1 1.000000    0 0.000000 35.3924 12.1039 33.4966
 139    2 0.000000    1 1.860000 35.2564 11.7521 32.9060
 140    2 0.000000   -1 1.860000 35.2564 11.7521 32.9060
 141    1 1.000000    0 0.000000 37.2582 8.8214 4.5202
 142    1 1.000000    0 0.000000 37.9556 9.9820 4.8815
 143    2 0.000000    1 1.860000 37.6069 9.4017 4.7009
 144    2 0.000000   -1 1.860000 37.6069 9.4017 4.7009
 145    1 1.000000    0 0.000000 30.0359 8.9331 9.3660
 146    1 1.000000    0 0.000000 31.0753 9.8704 9.4374
 147    2 0.000000    1 1.860000 30.5556 9.4017 9.4017
 148    2 0.000000   -1 1.860000 30.5556 9.4017 9.4017
 149    1 1.000000    0 0.000000 16.2135 39.7323 1.7316
 150    1 1.000000    0 0.000000 16.6925 40.1823 2.9693
 151    2 0.000000    1 1.860000 16.4530 39.9573 2.3504
 152    2 0.000000   -1 1.860000 16.4530 39.9573 2.3504
 153    1 1.000000    0 0.000000 39.6595 39.4404 25.4872
 154    1 1.000000    0 0.000000 40.2551 40.4742 26.2223
 155    2 0.000000    1 1.860000 39.9573 39.9573 25.8547
 156    2 0.000000   -1 1.860000 39.9573 39.9573 25.8547
 157    1 1.000000    0 0.000000 34.9945 32.8351 18.1574
 158    1 1.000000    0 0.000000 35.5184 32.9769 19.4495
 159    2 0.000000    1 1.860000 35.2564 32.9060 18.8034
 160    2 0.000000   -1 1.860000 35.2564 32.9060 18.8034
 161    1 1.000000    0 0.000000 27.8612 30.0288 25.5463
 162    1 1.000000    0 0.000000 28.5491 31.0824 26.1632
 163    2 0.000000    1 1.860000 28.2052 30.5556 25.8547
 164    2 0.000000   -1 1.860000 28.2052 30.5556 25.8547
 165    1 1.000000    0 0.000000 30.4446 6.4233 4.4106
 166    1 1.000000    0 0.000000 30.6665 7.6793 4.9911
 167    2 0.000000    1 1.860000 30.5556 7.0513 4.7009
 168    2 0.000000   -1 1.860000 30.5556 7.0513 4.7009
 169    1 1.000000    0 0.000000 9.2082 25.3888 15.9668
 170    1 1.000000    0 0.000000 9.5952 26.3207 16.9392
 171    2 0.000000    1 1.860000 9.4017 25.8547 16.4530
 172    2 0.000000   -1 1.860000 9.4017 25.8547 16.4530
 173    1 1.000000    0 0.000000 30.0676 37.1168 25.7421
 174    1 1.000000    0 0.000000 31.0436 38.0970 25.9674
 175    2 0.000000    1 1.860000 30.5556 37.6069 25.8547
 176    2 0.000000   -1 1.860000 30.5556 37.6069 25.8547
 177    1 1.000000    0 0.000000 1.8777 30.4617 39.4487
 178    1 1.000000    0 0.000000 2.8231 30.6495 40.4660
 179    2 0.000000    1 1.860000 2.3504 30.5556 39.9573
 180    2 0.000000   -1 1.860000 2.3504 30.5556 39.9573
 181    1 1.000000    0 0.000000 6.6369 18.2403 37.5597
 182    1 1.000000    0 0.000000 7.4657 19.3665 37.6540
 183    2 0.000000    1 1.860000 7.0513 18.8034 37.6069
 184    2 0.000000   -1 1.860000 7.0513 18.8034 37.6069
 185    1 1.000000    0 0.000000 2.0471 16.1754 18.2361
 186    1 1.000000    0 0.000000 2.6537 16.7307 19.3708
 187    2 0.000000    1 1.860000 2.3504 16.4530 18.8034
 188    2 0.000000   -1 1.860000 2.3504 16.4530 18.8034
 189    1 1.000000    0 0.000000 6.9196 29.8729 25.7673
 190    1 1.000000    0 0.000000 7.1830 31.2382 25.9422
 191    2 0.000000    1 1.860000 7.0513 30.5556 25.8547
 192    2 0.000000   -1 1.860000 7.0513 30.5556 25.8547
 193    1 1.000000    0 0.000000 13.9318 1.9746 18.2372
 194    1 1.000000    0 0.000000 14.2733 2.7263 19.3696
 195    2 0.000000    1 1.860000 14.1026 2.3504 18.8034
 196    2 0.000000   -1 1.860000 14.1026 2.3504 18.8034
 197    1 1.000000    0 0.000000 34.7449 2.1441 23.0721
 198    1 1.000000    0 0.000000 35.7680 2.5568 23.9365
 199    2 0.000000    1 1.860000 35.2564 2.3504 23.5043
 200    2 0.000000   -1 1.860000 35.2564 2.3504 23.5043
 201    1 1.000000    0 0.000000 30.4257 36.9296 30.4313
 202    1 1.000000    0 0.000000 30.6855 38.2841 30.6799
 203    2 0.000000    1 1.860000 30.5556 37.6069 30.5556
 204    2 0.000000   -1 1.860000 30.5556 37.6069 30.5556
 205    1 1.000000    0 0.000000 20.6481 20.6780 9.3083
 206    1 1.000000    0 0.000000 21.6597 21.6297 9.4952
 207    2 0.000000    1 1.860000 21.1539 21.1539 9.4017
 208    2 0.000000   -1 1.860000 21.1539 21.1539 9.4017
 209    1 1.000000    0 0.000000 11.3082 39.7221 23.0159
 210    1 1.000000    0 0.000000 12.1961 40.1925 23.9927
 211    2 0.000000    1 1.860000 11.7521 39.9573 23.5043
 212    2 0.000000   -1 1.860000 11.7521 39.9573 23.5043
 213    1 1.000000    0 0.000000 16.4426 30.1495 29.9847
 214    1 1.000000    0 0.000000 16.4635 30.9617 31.1265
 215    2 0.000000    1 1.860000 16.4530 30.5556 30.5556
 216    2 0.000000   -1 1.860000 16.4530 30.5556 30.5556
 217    1 1.000000    0 0.000000 1.7407 13.9807 4.3778
 218    1 1.000000    0 0.000000 2.9601 14.2245 5.0240
 219    2 0.000000    1 1.860000 2.3504 14.1026 4.7009
 220    2 0.000000   -1 1.860000 2.3504 14.1026 4.7009
 221    1 1.000000    0 0.000000 8.9448 13.6659 6.7487
 222    1 1.000000    0 0.000000 9.8586 14.5392 7.3539
 223    2 0.000000    1 1.860000 9.4017 14.1026 7.0513
 224    2 0.000000   -1 1.860000 9.4017 14.1026 7.0513
 225    1 1.000000    0 0.000000 32.5046 20.5981 35.1114
 226    1 1.000000    0 0.000000 33.3074 21.7096 35.4015
 227    2 0.000000    1 1.860000 32.9060 21.1539 35.2564
 228    2 0.000000   -1 1.860000 32.9060 21.1539 35.2564
 229    1 1.000000    0 0.000000 34.7402 23.0324 28.1621
 230    1 1.000000    0 0.000000 35.7727 23.9761 28.2483
 231    2 0.000000    1 1.860000 35.2564 23.5043 28.2052
 232    2 0.000000   -1 1.860000 35.2564 23.5043 28.2052
 233    1 1.000000    0 0.000000 18.6085 37.3643 32.2782
 234    1 1.000000    0 0.000000 18.9983 37.8494 33.5339
 235    2 0.000000    1 1.860000 18.8034 37.6069 32.9060
 236    2 0.000000   -1 1.860000 18.8034 37.6069 32.9060
 237    1 1.000000    0 0.000000 13.6772 1.8907 32.5919
 238    1 1.000000    0 0.000000 14.5280 2.8102 33.2201
 239    2 0.000000    1 1.860000 14.1026 2.3504 32.9060
 240    2 0.000000   -1 1.860000 14.1026 2.3504 32.9060
 241    1 1.000000    0 0.000000 27.6430 16.3117 23.1106
 242    1 1.000000    0 0.000000 28.7673 16.5943 23.8980
 243    2 0.000000    1 1.860000 28.2052 16.4530 23.5043
 244    2 0.000000   -1 1.860000 28.2052 16.4530 23.5043
 245    1 1.000000    0 0.000000 2.1903 30.4462 34.5831
 246    1 1.000000    0 0.000000 2.5105 30.6650 35.9298
 247    2 0.000000    1 1.860000 2.3504 30.5556 35.2564
 248    2 0.000000   -1 1.860000 2.3504 30.5556 35.2564
 249    1 1.000000    0 0.000000 35.1264 1.8237 11.3087
 250    1 1.000000    0 0.000000 35.3865 2.8772 12.1956
 251    2 0.000000    1 1.860000 35.2564 2.3504 11.7521
 252    2 0.000000   -1 1.860000 35.2564 2.3504 11.7521
 253    1 1.000000    0 0.000000 35.0165 13.6165 27.7611
 254    1 1.000000    0 0.000000 35.4964 14.5887 28.6492
 255    2 0.000000    1 1.860000 35.2564 14.1026 28.2052
 256    2 0.000000   -1 1.860000 35.2564 14.1026 28.2052
 257    1 1.000000    0 0.000000 25.5570 39.4534 34.8711
 258    1 1.000000    0 0.000000 26.1524 40.4612 35.6418
 259    2 0.000000    1 1.860000 25.8547 39.9573 35.2564
 260    2 0.000000   -1 1.860000 25.8547 39.9573 35.2564
 261    1 1.000000    0 0.000000 9.3427 25.2166 20.8705
 262    1 1.000000    0 0.000000 9.4607 26.4928 21.4373
 263    2 0.000000    1 1.860000 9.4017 25.8547 21.1539
 264    2 0.000000   -1 1.860000 9.4017 25.8547 21.1539
 265    1 1.000000    0 0.000000 37.3042 27.7981 34.7731
 266    1 1.000000    0 0.000000 37.9096 28.6123 35.7398
 267    2 0.000000    1 1.860000 37.6069 28.2052 35.2564
 268    2 0.000000   -1 1.860000 37.6069 28.2052 35.2564
 269    1 1.000000    0 0.000000 2.2086 36.9658 2.1057
 270    1 1.000000    0 0.000000 2.4923 38.2480 2.5952
 271    2 0.000000    1 1.860000 2.3504 37.6069 2.3504
 272    2 0.000000   -1 1.860000 2.3504 37.6069 2.3504
 273    1 1.000000    0 0.000000 23.1268 6.7011 37.1316
 274    1 1.000000    0 0.000000 23.8818 7.4015 38.0821
 275    2 0.000000    1 1.860000 23.5043 7.0513 37.6069
 276    2 0.000000   -1 1.860000 23.5043 7.0513 37.6069
 277    1 1.000000    0 0.000000 20.4652 23.4438 21.0395
 278    1 1.000000    0 0.000000 21.8425 23.5648 21.2682
 279    2 0.000000    1 1.860000 21.1539 23.5043 21.1539
 280    2 0.000000   -1 1.860000 21.1539 23.5043 21.1539
 281    1 1.000000    0 0.000000 8.9723 39.7238 25.3526
 282    1 1.000000    0 0.000000 9.8311 40.1908 26.3568
 283    2 0.000000    1 1.860000 9.4017 39.9573 25.8547
 284    2 0.000000   -1 1.860000 9.4017 39.9573 25.8547
 285    1 1.000000    0 0.000000 15.7698 18.7221 35.1239
 286    1 1.000000    0 0.000000 17.1362 18.8848 35.3890
 287    2 0.000000    1 1.860000 16.4530 18.8034 35.2564
 288    2 0.000000   -1 1.860000 16.4530 18.8034 35.2564
 289    1 1.000000    0 0.000000 2.0552 34.7843 13.6772
 290    1 1.000000    0 0.000000 2.6456 35.7286 14.5280
 291    2 0.000000    1 1.860000 2.3504 35.2564 14.1026
 292    2 0.000000   -1 1.860000 2.3504 35.2564 14.1026
 293    1 1.000000    0 0.000000 25.2684 16.2578 2.0200
 294    1 1.000000    0 0.000000 26.4410 16.6482 2.6808
 295    2 0.000000    1 1.860000 25.8547 16.4530 2.3504
 296    2 0.000000   -1 1.860000 25.8547 16.4530 2.3504
 297    1 1.000000    0 0.000000 1.8517 32.7340 13.6414
 298    1 1.000000    0 0.000000 2.8492 33.0781 14.5637
 299    2 0.000000    1 1.860000 2.3504 32.9060 14.1026
 300    2 0.000000   -1 1.860000 2.3504 32.9060 14.1026
 301    1 1.000000    0 0.000000 35.0582 11.4730 36.9955
 302    1 1.000000    0 0.000000 35.4547 12.0313 38.2182
 303    2 0.000000    1 1.860000 35.2564 11.7521 37.6069
 304    2 0.000000   -1 1.860000 35.2564 11.7521 37.6069
 305    1 1.000000    0 0.000000 14.0043 13.8027 8.7761
 306    1 1.000000    0 0.000000 14.2009 14.4025 10.0273
 307    2 0.000000    1 1.860000 14.1026 14.1026 9.4017
 308    2 0.000000   -1 1.860000 14.1026 14.1026 9.4017
 309    1 1.000000    0 0.000000 9.1113 16.0143 37.1441
 310    1 1.000000    0 0.000000 9.6921 16.8917 38.0697
 311    2 0.000000    1 1.860000 9.4017 16.4530 37.6069
 312    2 0.000000   -1 1.860000 9.4017 16.4530 37.6069
 313    1 1.000000    0 0.000000 11.1806 4.5621 27.8243
 314    1 1.000000    0 0.000000 12.3237 4.8396 28.5861
 315    2 0.000000    1 1.860000 11.7521 4.7009 28.2052
 316    2 0.000000   -1 1.860000 11.7521 4.7009 28.2052
 317    1 1.000000    0 0.000000 15.9523 1.8756 32.7840
 318    1 1.000000    0 0.000000 16.9537 2.8252 33.0280
 319    2 0.000000    1 1.860000 16.4530 2.3504 32.9060
 320    2 0.000000   -1 1.860000 16.4530 2.3504 32.9060
 321    1 1.000000    0 0.000000 30.4135 34.8350 11.2107
 322    1 1.000000    0 0.000000 30.6976 35.6779 12.2936
 323    2 0.000000    1 1.860000 30.5556 35.2564 11.7521
 324    2 0.000000   -1 1.860000 30.5556 35.2564 11.7521
 325    1 1.000000    0 0.000000 11.3633 4.3790 15.9670
 326    1 1.000000    0 0.000000 12.1410 5.0227 16.9390
 327    2 0.000000    1 1.860000 11.7521 4.7009 16.4530
 328    2 0.000000   -1 1.860000 11.7521 4.7009 16.4530
 329    1 1.000000    0 0.000000 4.1293 27.8001 30.5424
 330    1 1.000000    0 0.000000 5.2725 28.6103 30.5687
 331    2 0.000000    1 1.860000 4.7009 28.2052 30.5556
 332    2 0.000000   -1 1.860000 4.7009 28.2052 30.5556
 333    1 1.000000    0 0.000000 11.3691 4.1632 20.9189
 334    1 1.000000    0 0.000000 12.1352 5.2385 21.3889
 335    2 0.000000    1 1.860000 11.7521 4.7009 21.1539
 336    2 0.000000   -1 1.860000 11.7521 4.7009 21.1539
 337    1 1.000000    0 0.000000 39.7870 20.4875 28.0710
 338    1 1.000000    0 0.000000 40.1276 21.8202 28.3393
 339    2 0.000000    1 1.860000 39.9573 21.1539 28.2052
 340    2 0.000000   -1 1.860000 39.9573 21.1539 28.2052
 341    1 1.000000    0 0.000000 2.1979 18.7562 8.7194
 342    1 1.000000    0 0.000000 2.5029 18.8507 10.0840
 343    2 0.000000    1 1.860000 2.3504 18.8034 9.4017
 344    2 0.000000   -1 1.860000 2.3504 18.8034 9.4017
 345    1 1.000000    0 0.000000 8.9977 32.7561 1.7979
 346    1 1.000000    0 0.000000 9.8057 33.0560 2.9030
 347    2 0.000000    1 1.860000 9.4017 32.9060 2.3504
 348    2 0.000000   -1 1.860000 9.4017 32.9060 2.3504
 349    1 1.000000    0 0.000000 8.8829 37.4883 18.3477
 350    1 1.000000    0 0.000000 9.9206 37.7255 19.2592
 351    2 0.000000    1 1.860000 9.4017 37.6069 18.8034
 352    2 0.000000   -1 1.860000 9.4017 37.6069 18.8034
 353    1 1.000000    0 0.000000 22.9729 35.0484 11.3455
 354    1 1.000000    0 0.000000 24.0357 35.4645 12.1588
 355    2 0.000000    1 1.860000 23.5043 35.2564 11.7521
 356    2 0.000000   -1 1.860000 23.5043 35.2564 11.7521
 357    1 1.000000    0 0.000000 32.3848 25.6215 20.7478
 358    1 1.000000    0 0.000000 33.4273 26.0880 21.5599
 359    2 0.000000    1 1.860000 32.9060 25.8547 21.1539
 360    2 0.000000   -1 1.860000 32.9060 25.8547 21.1539
 361    1 1.000000    0 0.000000 16.0667 35.2057 15.8706
 362    1 1.000000    0 0.000000 16.8393 35.3072 17.0354
 363    2 0.000000    1 1.860000 16.4530 35.2564 16.4530
 364    2 0.000000   -1 1.860000 16.4530 35.2564 16.4530
 365    1 1.000000    0 0.000000 39.8432 13.4239 2.2188
 366    1 1.000000    0 0.000000 40.0714 14.7813 2.4821
 367    2 0.000000    1 1.860000 39.9573 14.1026 2.3504
 368    2 0.000000   -1 1.860000 39.9573 14.1026 2.3504
 369    1 1.000000    0 0.000000 20.8224 29.9719 25.6536
 370    1 1.000000    0 0.000000 21.4853 31.1393 26.0558
 371    2 0.000000    1 1.860000 21.1539 30.5556 25.8547
 372    2 0.000000   -1 1.860000 21.1539 30.5556 25.8547
 373    1 1.000000    0 0.000000 20.6289 30.0937 23.4589
 374    1 1.000000    0 0.000000 21.6788 31.0175 23.5497
 375    2 0.000000    1 1.860000 21.1539 30.5556 23.5043
 376    2 0.000000   -1 1.860000 21.1539 30.5556 23.5043
 377    1 1.000000    0 0.000000 30.0488 13.6989 18.5365
 378    1 1.000000    0 0.000000 31.0623 14.5062 19.0704
 379    2 0.000000    1 1.860000 30.5556 14.1026 18.8034
 380    2 0.000000   -1 1.860000 30.5556 14.1026 18.8034
 381    1 1.000000    0 0.000000 11.2361 25.4609 27.9414
 382    1 1.000000    0 0.000000 12.2682 26.2486 28.4689
 383    2 0.000000    1 1.860000 11.7521 25.8547 28.2052
 384    2 0.000000   -1 1.860000 11.7521 25.8547 28.2052
 385    1 1.000000    0 0.000000 25.4504 11.2978 27.8573
 386    1 1.000000    0 0.000000 26.2591 12.2065 28.5530
 387    2 0.000000    1 1.860000 25.8547 11.7521 28.2052
 388    2 0.000000   -1 1.860000 25.8547 11.7521 28.2052
 389    1 1.000000    0 0.000000 30.4208 32.6730 15.8061
 390    1 1.000000    0 0.000000 30.6904 33.1390 17.0999
 391    2 0.000000    1 1.860000 30.5556 32.9060 16.4530
 392    2 0.000000   -1 1.860000 30.5556 32.9060 16.4530
 393    1 1.000000    0 0.000000 30.2414 16.3052 8.7931
 394    1 1.000000    0 0.000000 30.8697 16.6008 10.0104
 395    2 0.000000    1 1.860000 30.5556 16.4530 9.4017
 396    2 0.000000   -1 1.860000 30.5556 16.4530 9.4017
 397    1 1.000000    0 0.000000 8.9813 2.2468 18.2525
 398    1 1.000000    0 0.000000 9.8221 2.4541 19.3544
 399    2 0.000000    1 1.860000 9.4017 2.3504 18.8034
 400    2 0.000000   -1 1.860000 9.4017 2.3504 18.8034
 401    1 1.000000    0 0.000000 23.0997 30.2037 8.9507
 402    1 1.000000    0 0.000000 23.9089 30.9075 9.8528
 403    2 0.000000    1 1.860000 23.5043 30.5556 9.4017
 404    2 0.000000   -1 1.860000 23.5043 30.5556 9.4017
 405    1 1.000000    0 0.000000 20.6409 6.9598 27.7366
 406    1 1.000000    0 0.000000 21.6668 7.1427 28.6737
 407    2 0.000000    1 1.860000 21.1539 7.0513 28.2052
 408    2 0.000000   -1 1.860000 21.1539 7.0513 28.2052
 409    1 1.000000    0 0.000000 25.3316 18.4599 32.5909
 410    1 1.000000    0 0.000000 26.3779 19.1469 33.2211
 411    2 0.000000    1 1.860000 25.8547 18.8034 32.9060
 412    2 0.000000   -1 1.860000 25.8547 18.8034 32.9060
 413    1 1.000000    0 0.000000 34.8162 11.4035 20.7347
 414    1 1.000000    0 0.000000 35.6967 12.1008 21.5730
 415    2 0.000000    1 1.860000 35.2564 11.7521 21.1539
 416    2 0.000000   -1 1.860000 35.2564 11.7521 21.1539
 417    1 1.000000    0 0.000000 9.0020 23.0660 30.1826
 418    1 1.000000    0 0.000000 9.8015 23.9426 30.9286
 419    2 0.000000    1 1.860000 9.4017 23.5043 30.5556
 420    2 0.000000   -1 1.860000 9.4017 23.5043 30.5556
 421    1 1.000000    0 0.000000 25.6723 4.2659 11.2339
 422    1 1.000000    0 0.000000 26.0372 5.1358 12.2704
 423    2 0.000000    1 1.860000 25.8547 4.7009 11.7521
 424    2 0.000000   -1 1.860000 25.8547 4.7009 11.7521
 425    1 1.000000    0 0.000000 25.7383 39.2688 4.6430
 426    1 1.000000    0 0.000000 25.9712 40.6458 4.7587
 427    2 0.000000    1 1.860000 25.8547 39.9573 4.7009
 428    2 0.000000   -1 1.860000 25.8547 39.9573 4.7009
 429    1 1.000000    0 0.000000 4.3883 32.5361 11.2457
 430    1 1.000000    0 0.000000 5.0134 33.2760 12.2586
 431    2 0.000000    1 1.860000 4.7009 32.9060 11.7521
 432    2 0.000000   -1 1.860000 4.7009 32.9060 11.7521
 433    1 1.000000    0 0.000000 25.7205 34.6902 4.3106
 434    1 1.000000    0 0.000000 25.9890 35.8227 5.0912
 435    2 0.000000    1 1.860000 25.8547 35.2564 4.7009
 436    2 0.000000   -1 1.860000 25.8547 35.2564 4.7009
 437    1 1.000000    0 0.000000 39.5789 25.4227 27.8037
 438    1 1.000000    0 0.000000 40.3357 26.2867 28.6066
 439    2 0.000000    1 1.860000 39.9573 25.8547 28.2052
 440    2 0.000000   -1 1.860000 39.9573 25.8547 28.2052
 441    1 1.000000    0 0.000000 23.0032 23.4053 34.7768
 442    1 1.000000    0 0.000000 24.0054 23.6033 35.7361
 443    2 0.000000    1 1.860000 23.5043 23.5043 35.2564
 444    2 0.000000   -1 1.860000 23.5043 23.5043 35.2564
 445    1 1.000000    0 0.000000 8.8569 39.6006 30.2968
 446    1 1.000000    0 0.000000 9.9465 40.3140 30.8143
 447    2 0.000000    1 1.860000 9.4017 39.9573 30.5556
 448    2 0.000000   -1 1.860000 9.4017 39.9573 30.5556
 449    1 1.000000    0 0.000000 35.0556 6.5410 18.3672
 450    1 1.000000    0 0.000000 35.4573 7.5615 19.2397
 451    2 0.000000    1 1.860000 35.2564 7.0513 18.8034
 452    2 0.000000   -1 1.860000 35.2564 7.0513 18.8034
 453    1 1.000000    0 0.000000 1.8589 9.0185 4.3806
 454    1 1.000000    0 0.000000 2.8419 9.7850 5.0211
 455    2 0.000000    1 1.860000 2.3504 9.4017 4.7009
 456    2 0.000000   -1 1.860000 2.3504 9.4017 4.7009
 457    1 1.000000    0 0.000000 32.3047 27.8467 25.8242
 458    1 1.000000    0 0.000000 33.5073 28.5636 25.8852
 459    2 0.000000    1 1.860000 32.9060 28.2052 25.8547
 460    2 0.000000   -1 1.860000 32.9060 28.2052 25.8547
 461    1 1.000000    0 0.000000 1.8524 14.0623 23.0130
 462    1 1.000000    0 0.000000 2.8484 14.1428 23.9956
 463    2 0.000000    1 1.860000 2.3504 14.1026 23.5043
 464    2 0.000000   -1 1.860000 2.3504 14.1026 23.5043
 465    1 1.000000    0 0.000000 28.1539 37.4980 1.6601
 466    1 1.000000    0 0.000000 28.2564 37.7157 3.0407
 467    2 0.000000    1 1.860000 28.2052 37.6069 2.3504
 468    2 0.000000   -1 1.860000 28.2052 37.6069 2.3504
 469    1 1.000000    0 0.000000 25.3282 20.9051 18.4137
 470    1 1.000000    0 0.000000 26.3812 21.4027 19.1932
 471    2 0.000000    1 1.860000 25.8547 21.1539 18.8034
 472    2 0.000000   -1 1.860000 25.8547 21.1539 18.8034
 473    1 1.000000    0 0.000000 27.6408 27.8576 4.4734
 474    1 1.000000    0 0.000000 28.7695 28.5527 4.9283
 475    2 0.000000    1 1.860000 28.2052 28.2052 4.7009
 476    2 0.000000   -1 1.860000 28.2052 28.2052 4.7009
 477    1 1.000000    0 0.000000 2.2162 13.4179 16.3881
 478    1 1.000000    0 0.000000 2.4847 14.7872 16.5179
 479    2 0.000000    1 1.860000 2.3504 14.1026 16.4530
 480    2 0.000000   -1 1.860000 2.3504 14.1026 16.4530
 481    1 1.000000    0 0.000000 2.2392 20.6123 39.5268
 482    1 1.000000    0 0.000000 2.4617 21.6955 40.3878
 483    2 0.000000    1 1.860000 2.3504 21.1539 39.9573
 484    2 0.000000   -1 1.860000 2.3504 21.1539 39.9573
 485    1 1.000000    0 0.000000 23.3102 34.5837 7.0232
 486    1 1.000000    0 0.000000 23.6983 35.9292 7.0793
 487    2 0.000000    1 1.860000 23.5043 35.2564 7.0513
 488    2 0.000000   -1 1.860000 23.5043 35.2564 7.0513
 489    1 1.000000    0 0.000000 1.9503 20.6698 32.5953
 490    1 1.000000    0 0.000000 2.7506 21.6379 33.2167
 491    2 0.000000    1 1.860000 2.3504 21.1539 32.9060
 492    2 0.000000   -1 1.860000 2.3504 21.1539 32.9060
 493    1 1.000000    0 0.000000 20.6719 23.1179 18.4727
 494    1 1.000000    0 0.000000 21.6359 23.8907 19.1342
 495    2 0.000000    1 1.860000 21.1539 23.5043 18.8034
 496    2 0.000000   -1 1.860000 21.1539 23.5043 18.8034
 497    1 1.000000    0 0.000000 18.3329 23.1910 4.2868
 498    1 1.000000    0 0.000000 19.2739 23.8176 5.1149
 499    2 0.000000    1 1.860000 18.8034 23.5043 4.7009
 500    2 0.000000   -1 1.860000 18.8034 23.5043 4.7009
 501    1 1.000000    0 0.000000 39.8579 39.4105 4.2741
 502    1 1.000000    0 0.000000 40.0567 40.5041 5.1277
 503    2 0.000000    1 1.860000 39.9573 39.9573 4.7009
 504    2 0.000000   -1 1.860000 39.9573 39.9573 4.7009
 505    1 1.000000    0 0.000000 30.4892 18.3419 37.0838
 506    1 1.000000    0 0.000000 30.6219 19.2650 38.1299
 507    2 0.000000    1 1.860000 30.5556 18.8034 37.6069
 508    2 0.000000   -1 1.860000 30.5556 18.8034 37.6069
 509    1 1.000000    0 0.000000 34.6316 13.7854 21.1538
 510    1 1.000000    0 0.000000 35.8813 14.4197 21.1539
 511    2 0.000000    1 1.860000 35.2564 14.1026 21.1539
 512    2 0.000000   -1 1.860000 35.2564 14.1026 21.1539
 513    1 1.000000    0 0.000000 36.9960 25.6556 27.9255
 514    1 1.000000    0 0.000000 38.2177 26.0539 28.4848
 515    2 0.000000    1 1.860000 37.6069 25.8547 28.2052
 516    2 0.000000   -1 1.860000 37.6069 25.8547 28.2052
 517    1 1.000000    0 0.000000 25.3008 11.5603 11.3684
 518    1 1.000000    0 0.000000 26.4087 11.9440 12.1359
 519    2 0.000000    1 1.860000 25.8547 11.7521 11.7521
 520    2 0.000000   -1 1.860000 25.8547 11.7521 11.7521
 521    1 1.000000    0 0.000000 7.0495 37.0629 20.7122
 522    1 1.000000    0 0.000000 7.0531 38.1508 21.5956
 523    2 0.000000    1 1.860000 7.0513 37.6069 21.1539
 524    2 0.000000   -1 1.860000 7.0513 37.6069 21.1539
 525    1 1.000000    0 0.000000 11.5869 37.3751 1.7101
 526    1 1.000000    0 0.000000 11.9174 37.8386 2.9907
 527    2 0.000000    1 1.860000 11.7521 37.6069 2.3504
 528    2 0.000000   -1 1.860000 11.7521 37.6069 2.3504
 529    1 1.000000    0 0.000000 21.0217 11.5043 4.0589